# vtk DataFile Version 5.1
written by meshio v5.3.5
ASCII
DATASET UNSTRUCTURED_GRID
POINTS 52 double
0.0 0.0 0.0 0.03333333 0.0 0.0 0.06666667 0.0 0.0 0.1 0.0 0.0 0.1333333 0.0 0.0 0.1666667 0.0 0.0 0.2 0.0 0.0 0.2333333 0.0 0.0 0.2666667 0.0 0.0 0.3 0.0 0.0 0.0 0.03333333 0.0 0.03333333 0.03333333 0.0 0.06666667 0.03333333 0.0 0.1 0.03333333 0.0 0.1333333 0.03333333 0.0 0.1666667 0.03333333 0.0 0.2 0.03333333 0.0 0.2333333 0.03333333 0.0 0.2666667 0.03333333 0.0 0.3 0.03333333 0.0 0.0 0.06666667 0.0 0.03333333 0.06666667 0.0 0.06666667 0.06666667 0.0 0.1 0.06666667 0.0 0.1333333 0.06666667 0.0 0.1666667 0.06666667 0.0 0.2 0.06666667 0.0 0.2333333 0.06666667 0.0 0.2666667 0.06666667 0.0 0.3 0.06666667 0.0 0.0 0.1 0.0 0.03333333 0.1 0.0 0.06666667 0.1 0.0 0.1 0.1 0.0 0.1333333 0.1 0.0 0.1666667 0.1 0.0 0.2 0.1 0.0 0.2333333 0.1 0.0 0.2666667 0.1 0.0 0.3 0.1 0.0 0.2 0.1333333 0.0 0.2333333 0.1333333 0.0 0.2666667 0.1333333 0.0 0.3 0.1333333 0.0 0.2 0.1666667 0.0 0.2333333 0.1666667 0.0 0.2666667 0.1666667 0.0 0.3 0.1666667 0.0 0.2 0.2 0.0 0.2333333 0.2 0.0 0.2666667 0.2 0.0 0.3 0.2 0.0
CELLS 37 144
OFFSETS vtktypeint64
0
4
8
12
16
20
24
28
32
36
40
44
48
52
56
60
64
68
72
76
80
84
88
92
96
100
104
108
112
116
120
124
128
132
136
140
144
CONNECTIVITY vtktypeint64
0
1
11
10
1
2
12
11
2
3
13
12
3
4
14
13
4
5
15
14
5
6
16
15
6
7
17
16
7
8
18
17
8
9
19
18
10
11
21
20
11
12
22
21
12
13
23
22
13
14
24
23
14
15
25
24
15
16
26
25
16
17
27
26
17
18
28
27
18
19
29
28
20
21
31
30
21
22
32
31
22
23
33
32
23
24
34
33
24
25
35
34
25
26
36
35
26
27
37
36
27
28
38
37
28
29
39
38
36
37
41
40
37
38
42
41
38
39
43
42
40
41
45
44
41
42
46
45
42
43
47
46
44
45
49
48
45
46
50
49
46
47
51
50
CELL_TYPES 36
9
9
9
9
9
9
9
9
9
9
9
9
9
9
9
9
9
9
9
9
9
9
9
9
9
9
9
9
9
9
9
9
9
9
9
9
POINT_DATA 52
FIELD FieldData 1
node_groups 1 52 vtktypeint64
0 0 0 0 0 0 0 0 0 0 0 0 0 0 0 0 0 0 0 0 0 0 0 0 0 0 0 0 0 0 0 0 0 0 0 0 0 0 0 0 0 0 0 0 0 0 0 0 0 0 0 0
CELL_DATA 36
FIELD FieldData 1
mat_id 1 36 vtktypeint64
1 1 1 1 1 1 1 1 1 1 1 1 1 1 1 1 1 1 1 1 1 1 1 1 1 1 1 1 1 1 1 1 1 1 1 1
