# vtk DataFile Version 5.1
written by meshio v5.3.5
ASCII
DATASET UNSTRUCTURED_GRID
POINTS 153 double
0.0 0.0 0.0 0.01875 0.0 0.0 0.01875 0.01875 0.0 0.0 0.01875 0.0 0.0375 0.0 0.0 0.0375 0.01875 0.0 0.056249999999999994 0.0 0.0 0.056249999999999994 0.01875 0.0 0.075 0.0 0.0 0.075 0.01875 0.0 0.09375 0.0 0.0 0.09375 0.01875 0.0 0.1125 0.0 0.0 0.1125 0.01875 0.0 0.13124999999999998 0.0 0.0 0.13124999999999998 0.01875 0.0 0.15 0.0 0.0 0.15 0.01875 0.0 0.16874999999999998 0.0 0.0 0.16874999999999998 0.01875 0.0 0.18749999999999997 0.0 0.0 0.18749999999999997 0.01875 0.0 0.20625 0.0 0.0 0.20625 0.01875 0.0 0.22499999999999998 0.0 0.0 0.22499999999999998 0.01875 0.0 0.24374999999999997 0.0 0.0 0.24374999999999997 0.01875 0.0 0.2625 0.0 0.0 0.2625 0.01875 0.0 0.28125 0.0 0.0 0.28125 0.01875 0.0 0.3 0.0 0.0 0.3 0.01875 0.0 0.01875 0.0375 0.0 0.0 0.0375 0.0 0.0375 0.0375 0.0 0.056249999999999994 0.0375 0.0 0.075 0.0375 0.0 0.09375 0.0375 0.0 0.1125 0.0375 0.0 0.13124999999999998 0.0375 0.0 0.15 0.0375 0.0 0.16874999999999998 0.0375 0.0 0.18749999999999997 0.0375 0.0 0.20625 0.0375 0.0 0.22499999999999998 0.0375 0.0 0.24374999999999997 0.0375 0.0 0.2625 0.0375 0.0 0.28125 0.0375 0.0 0.3 0.0375 0.0 0.01875 0.056249999999999994 0.0 0.0 0.056249999999999994 0.0 0.0375 0.056249999999999994 0.0 0.056249999999999994 0.056249999999999994 0.0 0.075 0.056249999999999994 0.0 0.09375 0.056249999999999994 0.0 0.1125 0.056249999999999994 0.0 0.13124999999999998 0.056249999999999994 0.0 0.15 0.056249999999999994 0.0 0.16874999999999998 0.056249999999999994 0.0 0.18749999999999997 0.056249999999999994 0.0 0.20625 0.056249999999999994 0.0 0.22499999999999998 0.056249999999999994 0.0 0.24374999999999997 0.056249999999999994 0.0 0.2625 0.056249999999999994 0.0 0.28125 0.056249999999999994 0.0 0.3 0.056249999999999994 0.0 0.01875 0.075 0.0 0.0 0.075 0.0 0.0375 0.075 0.0 0.056249999999999994 0.075 0.0 0.075 0.075 0.0 0.09375 0.075 0.0 0.1125 0.075 0.0 0.13124999999999998 0.075 0.0 0.15 0.075 0.0 0.16874999999999998 0.075 0.0 0.18749999999999997 0.075 0.0 0.20625 0.075 0.0 0.22499999999999998 0.075 0.0 0.24374999999999997 0.075 0.0 0.2625 0.075 0.0 0.28125 0.075 0.0 0.3 0.075 0.0 0.01875 0.09375 0.0 0.0 0.09375 0.0 0.0375 0.09375 0.0 0.056249999999999994 0.09375 0.0 0.075 0.09375 0.0 0.09375 0.09375 0.0 0.1125 0.09375 0.0 0.13124999999999998 0.09375 0.0 0.15 0.09375 0.0 0.16874999999999998 0.09375 0.0 0.18749999999999997 0.09375 0.0 0.20625 0.09375 0.0 0.22499999999999998 0.09375 0.0 0.24374999999999997 0.09375 0.0 0.2625 0.09375 0.0 0.28125 0.09375 0.0 0.3 0.09375 0.0 0.01875 0.1125 0.0 0.0 0.1125 0.0 0.0375 0.1125 0.0 0.056249999999999994 0.1125 0.0 0.075 0.1125 0.0 0.09375 0.1125 0.0 0.1125 0.1125 0.0 0.13124999999999998 0.1125 0.0 0.15 0.1125 0.0 0.16874999999999998 0.1125 0.0 0.18749999999999997 0.1125 0.0 0.20625 0.1125 0.0 0.22499999999999998 0.1125 0.0 0.24374999999999997 0.1125 0.0 0.2625 0.1125 0.0 0.28125 0.1125 0.0 0.3 0.1125 0.0 0.01875 0.13124999999999998 0.0 0.0 0.13124999999999998 0.0 0.0375 0.13124999999999998 0.0 0.056249999999999994 0.13124999999999998 0.0 0.075 0.13124999999999998 0.0 0.09375 0.13124999999999998 0.0 0.1125 0.13124999999999998 0.0 0.13124999999999998 0.13124999999999998 0.0 0.15 0.13124999999999998 0.0 0.16874999999999998 0.13124999999999998 0.0 0.18749999999999997 0.13124999999999998 0.0 0.20625 0.13124999999999998 0.0 0.22499999999999998 0.13124999999999998 0.0 0.24374999999999997 0.13124999999999998 0.0 0.2625 0.13124999999999998 0.0 0.28125 0.13124999999999998 0.0 0.3 0.13124999999999998 0.0 0.01875 0.15 0.0 0.0 0.15 0.0 0.0375 0.15 0.0 0.056249999999999994 0.15 0.0 0.075 0.15 0.0 0.09375 0.15 0.0 0.1125 0.15 0.0 0.13124999999999998 0.15 0.0 0.15 0.15 0.0 0.16874999999999998 0.15 0.0 0.18749999999999997 0.15 0.0 0.20625 0.15 0.0 0.22499999999999998 0.15 0.0 0.24374999999999997 0.15 0.0 0.2625 0.15 0.0 0.28125 0.15 0.0 0.3 0.15 0.0
CELLS 129 512
OFFSETS vtktypeint64
0
4
8
12
16
20
24
28
32
36
40
44
48
52
56
60
64
68
72
76
80
84
88
92
96
100
104
108
112
116
120
124
128
132
136
140
144
148
152
156
160
164
168
172
176
180
184
188
192
196
200
204
208
212
216
220
224
228
232
236
240
244
248
252
256
260
264
268
272
276
280
284
288
292
296
300
304
308
312
316
320
324
328
332
336
340
344
348
352
356
360
364
368
372
376
380
384
388
392
396
400
404
408
412
416
420
424
428
432
436
440
444
448
452
456
460
464
468
472
476
480
484
488
492
496
500
504
508
512
CONNECTIVITY vtktypeint64
0
1
2
3
1
4
5
2
4
6
7
5
6
8
9
7
8
10
11
9
10
12
13
11
12
14
15
13
14
16
17
15
16
18
19
17
18
20
21
19
20
22
23
21
22
24
25
23
24
26
27
25
26
28
29
27
28
30
31
29
30
32
33
31
3
2
34
35
2
5
36
34
5
7
37
36
7
9
38
37
9
11
39
38
11
13
40
39
13
15
41
40
15
17
42
41
17
19
43
42
19
21
44
43
21
23
45
44
23
25
46
45
25
27
47
46
27
29
48
47
29
31
49
48
31
33
50
49
35
34
51
52
34
36
53
51
36
37
54
53
37
38
55
54
38
39
56
55
39
40
57
56
40
41
58
57
41
42
59
58
42
43
60
59
43
44
61
60
44
45
62
61
45
46
63
62
46
47
64
63
47
48
65
64
48
49
66
65
49
50
67
66
52
51
68
69
51
53
70
68
53
54
71
70
54
55
72
71
55
56
73
72
56
57
74
73
57
58
75
74
58
59
76
75
59
60
77
76
60
61
78
77
61
62
79
78
62
63
80
79
63
64
81
80
64
65
82
81
65
66
83
82
66
67
84
83
69
68
85
86
68
70
87
85
70
71
88
87
71
72
89
88
72
73
90
89
73
74
91
90
74
75
92
91
75
76
93
92
76
77
94
93
77
78
95
94
78
79
96
95
79
80
97
96
80
81
98
97
81
82
99
98
82
83
100
99
83
84
101
100
86
85
102
103
85
87
104
102
87
88
105
104
88
89
106
105
89
90
107
106
90
91
108
107
91
92
109
108
92
93
110
109
93
94
111
110
94
95
112
111
95
96
113
112
96
97
114
113
97
98
115
114
98
99
116
115
99
100
117
116
100
101
118
117
103
102
119
120
102
104
121
119
104
105
122
121
105
106
123
122
106
107
124
123
107
108
125
124
108
109
126
125
109
110
127
126
110
111
128
127
111
112
129
128
112
113
130
129
113
114
131
130
114
115
132
131
115
116
133
132
116
117
134
133
117
118
135
134
120
119
136
137
119
121
138
136
121
122
139
138
122
123
140
139
123
124
141
140
124
125
142
141
125
126
143
142
126
127
144
143
127
128
145
144
128
129
146
145
129
130
147
146
130
131
148
147
131
132
149
148
132
133
150
149
133
134
151
150
134
135
152
151
CELL_TYPES 128
9
9
9
9
9
9
9
9
9
9
9
9
9
9
9
9
9
9
9
9
9
9
9
9
9
9
9
9
9
9
9
9
9
9
9
9
9
9
9
9
9
9
9
9
9
9
9
9
9
9
9
9
9
9
9
9
9
9
9
9
9
9
9
9
9
9
9
9
9
9
9
9
9
9
9
9
9
9
9
9
9
9
9
9
9
9
9
9
9
9
9
9
9
9
9
9
9
9
9
9
9
9
9
9
9
9
9
9
9
9
9
9
9
9
9
9
9
9
9
9
9
9
9
9
9
9
9
9
POINT_DATA 153
FIELD FieldData 1
medit:ref 1 153 vtktypeint64
0 0 0 0 0 0 0 0 0 0 0 0 0 0 0 0 0 0 0 0 0 0 0 0 0 0 0 0 0 0 0 0 0 0 0 0 0 0 0 0 0 0 0 0 0 0 0 0 0 0 0 0 0 0 0 0 0 0 0 0 0 0 0 0 0 0 0 0 0 0 0 0 0 0 0 0 0 0 0 0 0 0 0 0 0 0 0 0 0 0 0 0 0 0 0 0 0 0 0 0 0 0 0 0 0 0 0 0 0 0 0 0 0 0 0 0 0 0 0 0 0 0 0 0 0 0 0 0 0 0 0 0 0 0 0 0 0 0 0 0 0 0 0 0 0 0 0 0 0 0 0 0 0
CELL_DATA 128
FIELD FieldData 3
medit:ref 1 128 vtktypeint64
1 1 1 1 1 1 1 1 1 1 1 1 1 1 1 1 1 1 1 1 1 1 1 1 1 1 1 1 1 1 1 1 1 1 1 1 1 1 1 1 1 1 1 1 1 1 1 1 1 1 1 1 1 1 1 1 1 1 1 1 1 1 1 1 1 1 1 1 1 1 1 1 1 1 1 1 1 1 1 1 1 1 1 1 1 1 1 1 1 1 1 1 1 1 1 1 1 1 1 1 1 1 1 1 1 1 1 1 1 1 1 1 1 1 1 1 1 1 1 1 1 1 1 1 1 1 1 1
mat_id 1 128 vtktypeint64
1 1 1 1 1 1 1 1 1 1 1 1 1 1 1 1 1 1 1 1 1 1 1 1 1 1 1 1 1 1 1 1 1 1 1 1 1 1 1 1 1 1 1 1 1 1 1 1 1 1 1 1 1 1 1 1 1 1 1 1 1 1 1 1 1 1 1 1 1 1 1 1 1 1 1 1 1 1 1 1 1 1 1 1 1 1 1 1 1 1 1 1 1 1 1 1 1 1 1 1 1 1 1 1 1 1 1 1 1 1 1 1 1 1 1 1 1 1 1 1 1 1 1 1 1 1 1 1
eid 1 128 vtktypeint64
0 1 2 3 4 5 6 7 8 9 10 11 12 13 14 15 16 17 18 19 20 21 22 23 24 25 26 27 28 29 30 31 32 33 34 35 36 37 38 39 40 41 42 43 44 45 46 47 48 49 50 51 52 53 54 55 56 57 58 59 60 61 62 63 64 65 66 67 68 69 70 71 72 73 74 75 76 77 78 79 80 81 82 83 84 85 86 87 88 89 90 91 92 93 94 95 96 97 98 99 100 101 102 103 104 105 106 107 108 109 110 111 112 113 114 115 116 117 118 119 120 121 122 123 124 125 126 127
