# vtk DataFile Version 5.1
written by meshio v5.3.5
ASCII
DATASET UNSTRUCTURED_GRID
POINTS 126 double
0.0 0.0 0.0 0.02 0.0 0.0 0.02 0.02 0.0 0.0 0.02 0.0 0.04 0.0 0.0 0.04 0.02 0.0 0.06 0.0 0.0 0.06 0.02 0.0 0.08 0.0 0.0 0.08 0.02 0.0 0.1 0.0 0.0 0.1 0.02 0.0 0.12000000000000001 0.0 0.0 0.12000000000000001 0.02 0.0 0.13999999999999999 0.0 0.0 0.13999999999999999 0.02 0.0 0.16 0.0 0.0 0.16 0.02 0.0 0.18 0.0 0.0 0.18 0.02 0.0 0.19999999999999998 0.0 0.0 0.19999999999999998 0.02 0.0 0.22 0.0 0.0 0.22 0.02 0.0 0.24 0.0 0.0 0.24 0.02 0.0 0.26 0.0 0.0 0.26 0.02 0.0 0.28 0.0 0.0 0.28 0.02 0.0 0.30000000000000004 0.0 0.0 0.30000000000000004 0.02 0.0 0.02 0.04 0.0 0.0 0.04 0.0 0.04 0.04 0.0 0.06 0.04 0.0 0.08 0.04 0.0 0.1 0.04 0.0 0.12000000000000001 0.04 0.0 0.13999999999999999 0.04 0.0 0.16 0.04 0.0 0.18 0.04 0.0 0.19999999999999998 0.04 0.0 0.22 0.04 0.0 0.24 0.04 0.0 0.26 0.04 0.0 0.28 0.04 0.0 0.30000000000000004 0.04 0.0 0.02 0.06 0.0 0.0 0.06 0.0 0.04 0.06 0.0 0.06 0.06 0.0 0.08 0.06 0.0 0.1 0.06 0.0 0.12000000000000001 0.06 0.0 0.13999999999999999 0.06 0.0 0.16 0.06 0.0 0.18 0.06 0.0 0.19999999999999998 0.06 0.0 0.22 0.06 0.0 0.24 0.06 0.0 0.26 0.06 0.0 0.28 0.06 0.0 0.30000000000000004 0.06 0.0 0.02 0.08 0.0 0.0 0.08 0.0 0.04 0.08 0.0 0.06 0.08 0.0 0.08 0.08 0.0 0.1 0.08 0.0 0.12000000000000001 0.08 0.0 0.13999999999999999 0.08 0.0 0.16 0.08 0.0 0.18 0.08 0.0 0.19999999999999998 0.08 0.0 0.22 0.08 0.0 0.24 0.08 0.0 0.26 0.08 0.0 0.28 0.08 0.0 0.30000000000000004 0.08 0.0 0.02 0.1 0.0 0.0 0.1 0.0 0.04 0.1 0.0 0.06 0.1 0.0 0.08 0.1 0.0 0.1 0.1 0.0 0.12000000000000001 0.1 0.0 0.13999999999999999 0.1 0.0 0.16 0.1 0.0 0.18 0.1 0.0 0.19999999999999998 0.1 0.0 0.22 0.1 0.0 0.24 0.1 0.0 0.26 0.1 0.0 0.28 0.1 0.0 0.30000000000000004 0.1 0.0 0.22 0.12000000000000001 0.0 0.2 0.12000000000000001 0.0 0.24 0.12000000000000001 0.0 0.26 0.12000000000000001 0.0 0.28 0.12000000000000001 0.0 0.30000000000000004 0.12000000000000001 0.0 0.22 0.13999999999999999 0.0 0.2 0.13999999999999999 0.0 0.24 0.13999999999999999 0.0 0.26 0.13999999999999999 0.0 0.28 0.13999999999999999 0.0 0.30000000000000004 0.13999999999999999 0.0 0.22 0.16 0.0 0.2 0.16 0.0 0.24 0.16 0.0 0.26 0.16 0.0 0.28 0.16 0.0 0.30000000000000004 0.16 0.0 0.22 0.18 0.0 0.2 0.18 0.0 0.24 0.18 0.0 0.26 0.18 0.0 0.28 0.18 0.0 0.30000000000000004 0.18 0.0 0.22 0.19999999999999998 0.0 0.2 0.19999999999999998 0.0 0.24 0.19999999999999998 0.0 0.26 0.19999999999999998 0.0 0.28 0.19999999999999998 0.0 0.30000000000000004 0.19999999999999998 0.0
CELLS 101 400
OFFSETS vtktypeint64
0
4
8
12
16
20
24
28
32
36
40
44
48
52
56
60
64
68
72
76
80
84
88
92
96
100
104
108
112
116
120
124
128
132
136
140
144
148
152
156
160
164
168
172
176
180
184
188
192
196
200
204
208
212
216
220
224
228
232
236
240
244
248
252
256
260
264
268
272
276
280
284
288
292
296
300
304
308
312
316
320
324
328
332
336
340
344
348
352
356
360
364
368
372
376
380
384
388
392
396
400
CONNECTIVITY vtktypeint64
0
1
2
3
1
4
5
2
4
6
7
5
6
8
9
7
8
10
11
9
10
12
13
11
12
14
15
13
14
16
17
15
16
18
19
17
18
20
21
19
20
22
23
21
22
24
25
23
24
26
27
25
26
28
29
27
28
30
31
29
3
2
32
33
2
5
34
32
5
7
35
34
7
9
36
35
9
11
37
36
11
13
38
37
13
15
39
38
15
17
40
39
17
19
41
40
19
21
42
41
21
23
43
42
23
25
44
43
25
27
45
44
27
29
46
45
29
31
47
46
33
32
48
49
32
34
50
48
34
35
51
50
35
36
52
51
36
37
53
52
37
38
54
53
38
39
55
54
39
40
56
55
40
41
57
56
41
42
58
57
42
43
59
58
43
44
60
59
44
45
61
60
45
46
62
61
46
47
63
62
49
48
64
65
48
50
66
64
50
51
67
66
51
52
68
67
52
53
69
68
53
54
70
69
54
55
71
70
55
56
72
71
56
57
73
72
57
58
74
73
58
59
75
74
59
60
76
75
60
61
77
76
61
62
78
77
62
63
79
78
65
64
80
81
64
66
82
80
66
67
83
82
67
68
84
83
68
69
85
84
69
70
86
85
70
71
87
86
71
72
88
87
72
73
89
88
73
74
90
89
74
75
91
90
75
76
92
91
76
77
93
92
77
78
94
93
78
79
95
94
90
91
96
97
91
92
98
96
92
93
99
98
93
94
100
99
94
95
101
100
97
96
102
103
96
98
104
102
98
99
105
104
99
100
106
105
100
101
107
106
103
102
108
109
102
104
110
108
104
105
111
110
105
106
112
111
106
107
113
112
109
108
114
115
108
110
116
114
110
111
117
116
111
112
118
117
112
113
119
118
115
114
120
121
114
116
122
120
116
117
123
122
117
118
124
123
118
119
125
124
CELL_TYPES 100
9
9
9
9
9
9
9
9
9
9
9
9
9
9
9
9
9
9
9
9
9
9
9
9
9
9
9
9
9
9
9
9
9
9
9
9
9
9
9
9
9
9
9
9
9
9
9
9
9
9
9
9
9
9
9
9
9
9
9
9
9
9
9
9
9
9
9
9
9
9
9
9
9
9
9
9
9
9
9
9
9
9
9
9
9
9
9
9
9
9
9
9
9
9
9
9
9
9
9
9
CELL_DATA 100
FIELD FieldData 3
medit:ref 1 100 vtktypeint64
1 1 1 1 1 1 1 1 1 1 1 1 1 1 1 1 1 1 1 1 1 1 1 1 1 1 1 1 1 1 1 1 1 1 1 1 1 1 1 1 1 1 1 1 1 1 1 1 1 1 1 1 1 1 1 1 1 1 1 1 1 1 1 1 1 1 1 1 1 1 1 1 1 1 1 1 1 1 1 1 1 1 1 1 1 1 1 1 1 1 1 1 1 1 1 1 1 1 1 1
mat_id 1 100 vtktypeint64
1 1 1 1 1 1 1 1 1 1 1 1 1 1 1 1 1 1 1 1 1 1 1 1 1 1 1 1 1 1 1 1 1 1 1 1 1 1 1 1 1 1 1 1 1 1 1 1 1 1 1 1 1 1 1 1 1 1 1 1 1 1 1 1 1 1 1 1 1 1 1 1 1 1 1 1 1 1 1 1 1 1 1 1 1 1 1 1 1 1 1 1 1 1 1 1 1 1 1 1
eid 1 100 vtktypeint64
0 1 2 3 4 5 6 7 8 9 10 11 12 13 14 15 16 17 18 19 20 21 22 23 24 25 26 27 28 29 30 31 32 33 34 35 36 37 38 39 40 41 42 43 44 45 46 47 48 49 50 51 52 53 54 55 56 57 58 59 60 61 62 63 64 65 66 67 68 69 70 71 72 73 74 75 76 77 78 79 80 81 82 83 84 85 86 87 88 89 90 91 92 93 94 95 96 97 98 99
